<?xml version="1.0" encoding="UTF-8"?>

<!-- generated on 2026-04-16T14:59:02.204811+05:30 by Eclipse SUMO sumo 1.26.0
<sumoConfiguration xmlns:xsi="http://www.w3.org/2001/XMLSchema-instance" xsi:noNamespaceSchemaLocation="http://sumo.dlr.de/xsd/sumoConfiguration.xsd">

    <input>
        <net-file value="simulation\sumo_configs\map.net.xml"/>
        <route-files value="simulation\sumo_configs\routes.rou.xml"/>
    </input>

    <output>
        <summary-output value="simulation\sumo_configs\output/summary.xml"/>
        <tripinfo-output value="simulation\sumo_configs\output/tripinfo.xml"/>
    </output>

    <time>
        <begin value="0"/>
        <end value="3600"/>
        <step-length value="1.0"/>
    </time>

    <processing>
        <collision.action value="warn"/>
        <time-to-teleport value="-1"/>
        <waiting-time-memory value="100"/>
    </processing>

    <report>
        <no-warnings value="true"/>
        <no-step-log value="true"/>
    </report>

    <traci_server>
        <remote-port value="8820"/>
    </traci_server>

    <random_number>
        <seed value="42"/>
    </random_number>

</sumoConfiguration>
-->

<tripinfos xmlns:xsi="http://www.w3.org/2001/XMLSchema-instance" xsi:noNamespaceSchemaLocation="http://sumo.dlr.de/xsd/tripinfo_file.xsd">
    <tripinfo id="car_ns_.0" depart="0.00" departLane="north_to_center_0" departPos="5.10" departSpeed="0.00" departDelay="0.00" arrival="33.00" arrivalLane="center_to_south_0" arrivalPos="189.60" arrivalSpeed="12.98" duration="33.00" routeLength="394.90" waitingTime="0.00" waitingCount="0" stopTime="0.00" timeLoss="4.14" rerouteNo="0" devices="tripinfo_car_ns_.0" vType="normal_car" speedFactor="0.99" vaporized=""/>
    <tripinfo id="car_sn_.0" depart="0.00" departLane="south_to_center_0" departPos="2.10" departSpeed="0.00" departDelay="0.00" arrival="35.00" arrivalLane="center_to_north_0" arrivalPos="189.60" arrivalSpeed="12.09" duration="35.00" routeLength="397.90" waitingTime="0.00" waitingCount="0" stopTime="0.00" timeLoss="2.21" rerouteNo="0" devices="tripinfo_car_sn_.0" vType="motorcycle" speedFactor="0.88" vaporized=""/>
    <tripinfo id="car_se_.0" depart="2.00" departLane="south_to_center_0" departPos="5.10" departSpeed="0.00" departDelay="2.00" arrival="36.00" arrivalLane="center_to_east_0" arrivalPos="189.60" arrivalSpeed="13.03" duration="34.00" routeLength="383.13" waitingTime="0.00" waitingCount="0" stopTime="0.00" timeLoss="5.95" rerouteNo="0" devices="tripinfo_car_se_.0" vType="normal_car" speedFactor="1.24" vaporized=""/>
    <tripinfo id="car_ne_.0" depart="3.00" departLane="north_to_center_0" departPos="5.10" departSpeed="0.00" departDelay="3.00" arrival="39.00" arrivalLane="center_to_east_1" arrivalPos="189.60" arrivalSpeed="13.09" duration="36.00" routeLength="393.45" waitingTime="0.00" waitingCount="0" stopTime="0.00" timeLoss="6.12" rerouteNo="0" devices="tripinfo_car_ne_.0" vType="normal_car" speedFactor="1.03" vaporized=""/>
    <tripinfo id="car_nw_.0" depart="6.00" departLane="north_to_center_0" departPos="5.10" departSpeed="0.00" departDelay="6.00" arrival="40.00" arrivalLane="center_to_west_0" arrivalPos="189.60" arrivalSpeed="13.48" duration="34.00" routeLength="383.13" waitingTime="0.00" waitingCount="0" stopTime="0.00" timeLoss="5.90" rerouteNo="0" devices="tripinfo_car_nw_.0" vType="normal_car" speedFactor="1.05" vaporized=""/>
    <tripinfo id="car_sn_.1" depart="8.00" departLane="south_to_center_0" departPos="5.10" departSpeed="0.00" departDelay="1.57" arrival="41.00" arrivalLane="center_to_north_0" arrivalPos="189.60" arrivalSpeed="13.04" duration="33.00" routeLength="394.90" waitingTime="0.00" waitingCount="0" stopTime="0.00" timeLoss="4.17" rerouteNo="0" devices="tripinfo_car_sn_.1" vType="normal_car" speedFactor="1.05" vaporized=""/>
    <tripinfo id="car_ns_.1" depart="9.00" departLane="north_to_center_0" departPos="5.10" departSpeed="0.00" departDelay="2.57" arrival="43.00" arrivalLane="center_to_south_0" arrivalPos="189.60" arrivalSpeed="13.10" duration="34.00" routeLength="394.90" waitingTime="0.00" waitingCount="0" stopTime="0.00" timeLoss="4.59" rerouteNo="0" devices="tripinfo_car_ns_.1" vType="normal_car" speedFactor="0.99" vaporized=""/>
    <tripinfo id="car_sw_.0" depart="5.00" departLane="south_to_center_0" departPos="5.10" departSpeed="0.00" departDelay="5.00" arrival="48.00" arrivalLane="center_to_west_1" arrivalPos="189.60" arrivalSpeed="13.15" duration="43.00" routeLength="393.45" waitingTime="3.00" waitingCount="1" stopTime="0.00" timeLoss="13.06" rerouteNo="0" devices="tripinfo_car_sw_.0" vType="normal_car" speedFactor="0.99" vaporized=""/>
    <tripinfo id="car_ew_.0" depart="0.00" departLane="east_to_center_0" departPos="5.10" departSpeed="0.00" departDelay="0.00" arrival="78.00" arrivalLane="center_to_west_0" arrivalPos="189.60" arrivalSpeed="13.82" duration="78.00" routeLength="394.90" waitingTime="40.00" waitingCount="1" stopTime="0.00" timeLoss="49.02" rerouteNo="0" devices="tripinfo_car_ew_.0" vType="normal_car" speedFactor="1.05" vaporized=""/>
    <tripinfo id="car_ws_.0" depart="6.00" departLane="west_to_center_0" departPos="5.10" departSpeed="0.00" departDelay="6.00" arrival="80.00" arrivalLane="center_to_south_0" arrivalPos="189.60" arrivalSpeed="12.75" duration="74.00" routeLength="383.13" waitingTime="36.00" waitingCount="1" stopTime="0.00" timeLoss="45.60" rerouteNo="0" devices="tripinfo_car_ws_.0" vType="normal_car" speedFactor="1.10" vaporized=""/>
    <tripinfo id="car_we_.0" depart="0.00" departLane="west_to_center_0" departPos="5.10" departSpeed="0.00" departDelay="0.00" arrival="81.00" arrivalLane="center_to_east_0" arrivalPos="189.60" arrivalSpeed="11.31" duration="81.00" routeLength="394.90" waitingTime="38.00" waitingCount="1" stopTime="0.00" timeLoss="47.87" rerouteNo="0" devices="tripinfo_car_we_.0" vType="normal_car" speedFactor="0.88" vaporized=""/>
    <tripinfo id="car_en_.0" depart="3.00" departLane="east_to_center_0" departPos="5.10" departSpeed="0.00" departDelay="3.00" arrival="82.00" arrivalLane="center_to_north_0" arrivalPos="189.60" arrivalSpeed="11.94" duration="79.00" routeLength="383.13" waitingTime="36.00" waitingCount="1" stopTime="0.00" timeLoss="47.65" rerouteNo="0" devices="tripinfo_car_en_.0" vType="normal_car" speedFactor="0.94" vaporized=""/>
    <tripinfo id="car_we_.2" depart="21.00" departLane="west_to_center_0" departPos="5.10" departSpeed="0.00" departDelay="0.43" arrival="82.00" arrivalLane="center_to_east_0" arrivalPos="189.60" arrivalSpeed="13.84" duration="61.00" routeLength="394.90" waitingTime="21.00" waitingCount="1" stopTime="0.00" timeLoss="32.55" rerouteNo="0" devices="tripinfo_car_we_.2" vType="normal_car" speedFactor="1.15" vaporized=""/>
    <tripinfo id="car_we_.4" depart="42.00" departLane="west_to_center_0" departPos="5.10" departSpeed="0.00" departDelay="0.86" arrival="84.00" arrivalLane="center_to_east_0" arrivalPos="189.60" arrivalSpeed="12.92" duration="42.00" routeLength="394.90" waitingTime="3.00" waitingCount="1" stopTime="0.00" timeLoss="13.30" rerouteNo="0" devices="tripinfo_car_we_.4" vType="normal_car" speedFactor="1.02" vaporized=""/>
    <tripinfo id="car_ws_.1" depart="51.00" departLane="west_to_center_0" departPos="5.10" departSpeed="0.00" departDelay="3.00" arrival="86.00" arrivalLane="center_to_south_0" arrivalPos="189.60" arrivalSpeed="12.84" duration="35.00" routeLength="383.13" waitingTime="0.00" waitingCount="0" stopTime="0.00" timeLoss="6.90" rerouteNo="0" devices="tripinfo_car_ws_.1" vType="normal_car" speedFactor="1.21" vaporized=""/>
    <tripinfo id="car_ew_.2" depart="21.00" departLane="east_to_center_0" departPos="5.10" departSpeed="0.00" departDelay="0.43" arrival="88.00" arrivalLane="center_to_west_0" arrivalPos="189.60" arrivalSpeed="8.96" duration="67.00" routeLength="394.90" waitingTime="17.00" waitingCount="1" stopTime="0.00" timeLoss="27.83" rerouteNo="0" devices="tripinfo_car_ew_.2" vType="normal_car" speedFactor="0.74" vaporized=""/>
    <tripinfo id="car_en_.1" depart="48.00" departLane="east_to_center_0" departPos="5.10" departSpeed="0.00" departDelay="0.00" arrival="88.00" arrivalLane="center_to_north_0" arrivalPos="189.60" arrivalSpeed="12.73" duration="40.00" routeLength="383.13" waitingTime="0.00" waitingCount="0" stopTime="0.00" timeLoss="11.50" rerouteNo="0" devices="tripinfo_car_en_.1" vType="normal_car" speedFactor="1.09" vaporized=""/>
    <tripinfo id="car_we_.5" depart="54.00" departLane="west_to_center_0" departPos="5.10" departSpeed="0.00" departDelay="2.57" arrival="89.00" arrivalLane="center_to_east_0" arrivalPos="189.60" arrivalSpeed="13.87" duration="35.00" routeLength="394.90" waitingTime="0.00" waitingCount="0" stopTime="0.00" timeLoss="5.63" rerouteNo="0" devices="tripinfo_car_we_.5" vType="normal_car" speedFactor="1.10" vaporized=""/>
    <tripinfo id="car_ew_.4" depart="42.00" departLane="east_to_center_0" departPos="12.10" departSpeed="0.00" departDelay="0.86" arrival="90.00" arrivalLane="center_to_west_0" arrivalPos="189.60" arrivalSpeed="9.95" duration="48.00" routeLength="387.90" waitingTime="0.00" waitingCount="0" stopTime="0.00" timeLoss="8.77" rerouteNo="0" devices="tripinfo_car_ew_.4" vType="bus" speedFactor="1.00" vaporized=""/>
    <tripinfo id="car_ew_.5" depart="54.00" departLane="east_to_center_0" departPos="5.10" departSpeed="0.00" departDelay="2.57" arrival="92.00" arrivalLane="center_to_west_1" arrivalPos="189.60" arrivalSpeed="13.62" duration="38.00" routeLength="394.90" waitingTime="0.00" waitingCount="0" stopTime="0.00" timeLoss="8.66" rerouteNo="0" devices="tripinfo_car_ew_.5" vType="normal_car" speedFactor="1.12" vaporized=""/>
    <tripinfo id="car_we_.6" depart="62.00" departLane="west_to_center_0" departPos="5.10" departSpeed="0.00" departDelay="0.28" arrival="98.00" arrivalLane="center_to_east_1" arrivalPos="189.60" arrivalSpeed="13.59" duration="36.00" routeLength="394.90" waitingTime="0.00" waitingCount="0" stopTime="0.00" timeLoss="7.36" rerouteNo="0" devices="tripinfo_car_we_.6" vType="normal_car" speedFactor="1.22" vaporized=""/>
    <tripinfo id="car_we_.3" depart="31.00" departLane="west_to_center_0" departPos="12.10" departSpeed="0.00" departDelay="0.14" arrival="100.00" arrivalLane="center_to_east_0" arrivalPos="189.60" arrivalSpeed="9.71" duration="69.00" routeLength="387.90" waitingTime="15.00" waitingCount="2" stopTime="0.00" timeLoss="30.18" rerouteNo="0" devices="tripinfo_car_we_.3" vType="bus" speedFactor="1.00" vaporized=""/>
    <tripinfo id="car_ew_.6" depart="62.00" departLane="east_to_center_0" departPos="5.10" departSpeed="0.00" departDelay="0.28" arrival="100.00" arrivalLane="center_to_west_1" arrivalPos="189.60" arrivalSpeed="13.10" duration="38.00" routeLength="394.90" waitingTime="0.00" waitingCount="0" stopTime="0.00" timeLoss="8.25" rerouteNo="0" devices="tripinfo_car_ew_.6" vType="normal_car" speedFactor="0.99" vaporized=""/>
    <tripinfo id="car_ew_.1" depart="11.00" departLane="east_to_center_0" departPos="12.10" departSpeed="0.00" departDelay="0.71" arrival="102.00" arrivalLane="center_to_west_0" arrivalPos="189.60" arrivalSpeed="9.80" duration="91.00" routeLength="387.90" waitingTime="33.00" waitingCount="2" stopTime="0.00" timeLoss="51.41" rerouteNo="0" devices="tripinfo_car_ew_.1" vType="bus" speedFactor="1.00" vaporized=""/>
    <tripinfo id="car_we_.1" depart="11.00" departLane="west_to_center_0" departPos="5.10" departSpeed="0.00" departDelay="0.71" arrival="102.00" arrivalLane="center_to_east_1" arrivalPos="189.60" arrivalSpeed="13.03" duration="91.00" routeLength="394.90" waitingTime="47.00" waitingCount="2" stopTime="0.00" timeLoss="61.65" rerouteNo="0" devices="tripinfo_car_we_.1" vType="normal_car" speedFactor="0.97" vaporized=""/>
    <tripinfo id="car_ew_.3" depart="31.00" departLane="east_to_center_0" departPos="5.10" departSpeed="0.00" departDelay="0.14" arrival="104.00" arrivalLane="center_to_west_0" arrivalPos="189.60" arrivalSpeed="12.63" duration="73.00" routeLength="394.90" waitingTime="24.00" waitingCount="4" stopTime="0.00" timeLoss="44.15" rerouteNo="0" devices="tripinfo_car_ew_.3" vType="normal_car" speedFactor="1.02" vaporized=""/>
    <tripinfo id="car_es_.0" depart="6.00" departLane="east_to_center_0" departPos="5.10" departSpeed="0.00" departDelay="6.00" arrival="105.00" arrivalLane="center_to_south_1" arrivalPos="189.60" arrivalSpeed="13.14" duration="99.00" routeLength="393.45" waitingTime="56.00" waitingCount="2" stopTime="0.00" timeLoss="69.02" rerouteNo="0" devices="tripinfo_car_es_.0" vType="normal_car" speedFactor="0.99" vaporized=""/>
    <tripinfo id="car_es_.1" depart="51.00" departLane="east_to_center_0" departPos="5.10" departSpeed="0.00" departDelay="3.00" arrival="106.00" arrivalLane="center_to_south_1" arrivalPos="189.60" arrivalSpeed="13.16" duration="55.00" routeLength="393.45" waitingTime="7.00" waitingCount="2" stopTime="0.00" timeLoss="26.21" rerouteNo="0" devices="tripinfo_car_es_.1" vType="normal_car" speedFactor="1.14" vaporized=""/>
    <tripinfo id="car_wn_.0" depart="3.00" departLane="west_to_center_0" departPos="5.10" departSpeed="0.00" departDelay="3.00" arrival="107.00" arrivalLane="center_to_north_1" arrivalPos="189.60" arrivalSpeed="12.91" duration="104.00" routeLength="393.45" waitingTime="63.00" waitingCount="2" stopTime="0.00" timeLoss="74.93" rerouteNo="0" devices="tripinfo_car_wn_.0" vType="normal_car" speedFactor="1.02" vaporized=""/>
    <tripinfo id="car_ns_.3" depart="20.00" departLane="north_to_center_0" departPos="5.10" departSpeed="0.00" departDelay="0.71" arrival="139.00" arrivalLane="center_to_south_0" arrivalPos="189.60" arrivalSpeed="12.36" duration="119.00" routeLength="394.90" waitingTime="80.00" waitingCount="1" stopTime="0.00" timeLoss="87.94" rerouteNo="0" devices="tripinfo_car_ns_.3" vType="normal_car" speedFactor="0.93" vaporized=""/>
    <tripinfo id="car_sn_.3" depart="20.00" departLane="south_to_center_0" departPos="5.10" departSpeed="0.00" departDelay="0.71" arrival="139.00" arrivalLane="center_to_north_1" arrivalPos="189.60" arrivalSpeed="13.50" duration="119.00" routeLength="394.90" waitingTime="80.00" waitingCount="1" stopTime="0.00" timeLoss="89.79" rerouteNo="0" devices="tripinfo_car_sn_.3" vType="normal_car" speedFactor="1.08" vaporized=""/>
    <tripinfo id="car_sn_.2" depart="13.00" departLane="south_to_center_0" departPos="5.10" departSpeed="0.00" departDelay="0.14" arrival="140.00" arrivalLane="center_to_north_0" arrivalPos="189.60" arrivalSpeed="12.22" duration="127.00" routeLength="394.90" waitingTime="86.00" waitingCount="1" stopTime="0.00" timeLoss="94.86" rerouteNo="0" devices="tripinfo_car_sn_.2" vType="normal_car" speedFactor="0.91" vaporized=""/>
    <tripinfo id="car_ns_.4" depart="26.00" departLane="north_to_center_0" departPos="5.10" departSpeed="0.00" departDelay="0.28" arrival="140.00" arrivalLane="center_to_south_0" arrivalPos="189.60" arrivalSpeed="13.68" duration="114.00" routeLength="394.90" waitingTime="77.00" waitingCount="1" stopTime="0.00" timeLoss="85.57" rerouteNo="0" devices="tripinfo_car_ns_.4" vType="normal_car" speedFactor="1.06" vaporized=""/>
    <tripinfo id="car_ns_.2" depart="13.00" departLane="north_to_center_0" departPos="5.10" departSpeed="0.00" departDelay="0.14" arrival="141.00" arrivalLane="center_to_south_0" arrivalPos="189.60" arrivalSpeed="11.21" duration="128.00" routeLength="394.90" waitingTime="86.00" waitingCount="1" stopTime="0.00" timeLoss="93.82" rerouteNo="0" devices="tripinfo_car_ns_.2" vType="normal_car" speedFactor="0.85" vaporized=""/>
    <tripinfo id="car_sn_.4" depart="26.00" departLane="south_to_center_0" departPos="5.10" departSpeed="0.00" departDelay="0.28" arrival="141.00" arrivalLane="center_to_north_0" arrivalPos="189.60" arrivalSpeed="12.68" duration="115.00" routeLength="394.90" waitingTime="75.00" waitingCount="1" stopTime="0.00" timeLoss="86.56" rerouteNo="0" devices="tripinfo_car_sn_.4" vType="normal_car" speedFactor="1.06" vaporized=""/>
    <tripinfo id="car_nw_.1" depart="33.00" departLane="north_to_center_0" departPos="2.10" departSpeed="0.00" departDelay="3.00" arrival="141.00" arrivalLane="center_to_west_0" arrivalPos="189.60" arrivalSpeed="14.22" duration="108.00" routeLength="386.13" waitingTime="70.00" waitingCount="1" stopTime="0.00" timeLoss="80.87" rerouteNo="0" devices="tripinfo_car_nw_.1" vType="motorcycle" speedFactor="1.07" vaporized=""/>
    <tripinfo id="car_se_.1" depart="30.00" departLane="south_to_center_0" departPos="2.10" departSpeed="0.00" departDelay="0.00" arrival="142.00" arrivalLane="center_to_east_0" arrivalPos="189.60" arrivalSpeed="13.14" duration="112.00" routeLength="386.13" waitingTime="75.00" waitingCount="1" stopTime="0.00" timeLoss="82.07" rerouteNo="0" devices="tripinfo_car_se_.1" vType="motorcycle" speedFactor="0.97" vaporized=""/>
    <tripinfo id="car_ns_.5" depart="36.00" departLane="north_to_center_0" departPos="5.10" departSpeed="0.00" departDelay="3.86" arrival="145.00" arrivalLane="center_to_south_0" arrivalPos="189.60" arrivalSpeed="13.51" duration="109.00" routeLength="394.90" waitingTime="68.00" waitingCount="1" stopTime="0.00" timeLoss="79.61" rerouteNo="0" devices="tripinfo_car_ns_.5" vType="normal_car" speedFactor="1.09" vaporized=""/>
    <tripinfo id="car_sn_.6" depart="39.00" departLane="south_to_center_0" departPos="5.10" departSpeed="0.00" departDelay="0.43" arrival="146.00" arrivalLane="center_to_north_0" arrivalPos="189.60" arrivalSpeed="12.40" duration="107.00" routeLength="394.90" waitingTime="65.00" waitingCount="1" stopTime="0.00" timeLoss="75.34" rerouteNo="0" devices="tripinfo_car_sn_.6" vType="normal_car" speedFactor="0.92" vaporized=""/>
    <tripinfo id="car_ns_.7" depart="46.00" departLane="north_to_center_0" departPos="5.10" departSpeed="0.00" departDelay="1.00" arrival="147.00" arrivalLane="center_to_south_0" arrivalPos="189.60" arrivalSpeed="13.23" duration="101.00" routeLength="394.90" waitingTime="58.00" waitingCount="1" stopTime="0.00" timeLoss="70.82" rerouteNo="0" devices="tripinfo_car_ns_.7" vType="normal_car" speedFactor="0.96" vaporized=""/>
    <tripinfo id="car_sn_.8" depart="52.00" departLane="south_to_center_0" departPos="5.10" departSpeed="0.00" departDelay="0.57" arrival="148.00" arrivalLane="center_to_north_0" arrivalPos="189.60" arrivalSpeed="11.69" duration="96.00" routeLength="394.90" waitingTime="53.00" waitingCount="1" stopTime="0.00" timeLoss="63.12" rerouteNo="0" devices="tripinfo_car_sn_.8" vType="normal_car" speedFactor="0.88" vaporized=""/>
    <tripinfo id="car_ns_.9" depart="58.00" departLane="north_to_center_0" departPos="5.10" departSpeed="0.00" departDelay="0.14" arrival="149.00" arrivalLane="center_to_south_0" arrivalPos="189.60" arrivalSpeed="12.68" duration="91.00" routeLength="394.90" waitingTime="49.00" waitingCount="1" stopTime="0.00" timeLoss="61.16" rerouteNo="0" devices="tripinfo_car_ns_.9" vType="normal_car" speedFactor="0.97" vaporized=""/>
    <tripinfo id="car_se_.2" depart="60.00" departLane="south_to_center_0" departPos="5.10" departSpeed="0.00" departDelay="0.00" arrival="149.00" arrivalLane="center_to_east_0" arrivalPos="189.60" arrivalSpeed="12.33" duration="89.00" routeLength="383.13" waitingTime="47.00" waitingCount="1" stopTime="0.00" timeLoss="59.21" rerouteNo="0" devices="tripinfo_car_se_.2" vType="normal_car" speedFactor="0.94" vaporized=""/>
    <tripinfo id="car_nw_.2" depart="64.00" departLane="north_to_center_0" departPos="5.10" departSpeed="0.00" departDelay="4.00" arrival="151.00" arrivalLane="center_to_west_0" arrivalPos="189.60" arrivalSpeed="12.64" duration="87.00" routeLength="383.13" waitingTime="44.00" waitingCount="1" stopTime="0.00" timeLoss="58.11" rerouteNo="0" devices="tripinfo_car_nw_.2" vType="normal_car" speedFactor="1.08" vaporized=""/>
    <tripinfo id="car_ns_.11" depart="71.00" departLane="north_to_center_0" departPos="5.10" departSpeed="0.00" departDelay="0.28" arrival="153.00" arrivalLane="center_to_south_0" arrivalPos="189.60" arrivalSpeed="13.09" duration="82.00" routeLength="394.90" waitingTime="38.00" waitingCount="1" stopTime="0.00" timeLoss="53.18" rerouteNo="0" devices="tripinfo_car_ns_.11" vType="normal_car" speedFactor="1.02" vaporized=""/>
    <tripinfo id="car_sn_.10" depart="66.00" departLane="south_to_center_0" departPos="5.10" departSpeed="0.00" departDelay="1.71" arrival="154.00" arrivalLane="center_to_north_0" arrivalPos="189.60" arrivalSpeed="11.23" duration="88.00" routeLength="394.90" waitingTime="41.00" waitingCount="1" stopTime="0.00" timeLoss="54.43" rerouteNo="0" devices="tripinfo_car_sn_.10" vType="normal_car" speedFactor="0.86" vaporized=""/>
    <tripinfo id="car_ns_.13" depart="84.00" departLane="north_to_center_0" departPos="5.10" departSpeed="0.00" departDelay="0.42" arrival="155.00" arrivalLane="center_to_south_0" arrivalPos="189.60" arrivalSpeed="13.02" duration="71.00" routeLength="394.90" waitingTime="28.00" waitingCount="1" stopTime="0.00" timeLoss="41.69" rerouteNo="0" devices="tripinfo_car_ns_.13" vType="normal_car" speedFactor="0.98" vaporized=""/>
    <tripinfo id="car_sn_.12" depart="78.00" departLane="south_to_center_0" departPos="5.10" departSpeed="0.00" departDelay="0.85" arrival="156.00" arrivalLane="center_to_north_0" arrivalPos="189.60" arrivalSpeed="12.86" duration="78.00" routeLength="394.90" waitingTime="32.00" waitingCount="1" stopTime="0.00" timeLoss="48.88" rerouteNo="0" devices="tripinfo_car_sn_.12" vType="normal_car" speedFactor="1.03" vaporized=""/>
    <tripinfo id="car_nw_.3" depart="93.00" departLane="north_to_center_0" departPos="5.10" departSpeed="0.00" departDelay="3.00" arrival="157.00" arrivalLane="center_to_west_0" arrivalPos="189.60" arrivalSpeed="13.11" duration="64.00" routeLength="383.13" waitingTime="21.00" waitingCount="1" stopTime="0.00" timeLoss="35.89" rerouteNo="0" devices="tripinfo_car_nw_.3" vType="normal_car" speedFactor="1.08" vaporized=""/>
    <tripinfo id="car_se_.3" depart="90.00" departLane="south_to_center_0" departPos="5.10" departSpeed="0.00" departDelay="0.00" arrival="157.00" arrivalLane="center_to_east_0" arrivalPos="189.60" arrivalSpeed="12.74" duration="67.00" routeLength="383.13" waitingTime="21.00" waitingCount="1" stopTime="0.00" timeLoss="36.11" rerouteNo="0" devices="tripinfo_car_se_.3" vType="normal_car" speedFactor="0.92" vaporized=""/>
    <tripinfo id="car_sn_.14" depart="96.00" departLane="south_to_center_0" departPos="5.10" departSpeed="0.00" departDelay="5.99" arrival="158.00" arrivalLane="center_to_north_0" arrivalPos="189.60" arrivalSpeed="13.68" duration="62.00" routeLength="394.90" waitingTime="18.00" waitingCount="1" stopTime="0.00" timeLoss="33.56" rerouteNo="0" devices="tripinfo_car_sn_.14" vType="normal_car" speedFactor="1.10" vaporized=""/>
    <tripinfo id="car_sn_.16" depart="103.00" departLane="south_to_center_0" departPos="5.10" departSpeed="0.00" departDelay="0.14" arrival="163.00" arrivalLane="center_to_north_0" arrivalPos="189.60" arrivalSpeed="11.49" duration="60.00" routeLength="394.90" waitingTime="11.00" waitingCount="1" stopTime="0.00" timeLoss="26.56" rerouteNo="0" devices="tripinfo_car_sn_.16" vType="normal_car" speedFactor="0.87" vaporized=""/>
    <tripinfo id="car_ns_.18" depart="116.00" departLane="north_to_center_0" departPos="5.10" departSpeed="0.00" departDelay="0.28" arrival="163.00" arrivalLane="center_to_south_1" arrivalPos="189.60" arrivalSpeed="13.66" duration="47.00" routeLength="394.90" waitingTime="3.00" waitingCount="1" stopTime="0.00" timeLoss="17.92" rerouteNo="0" devices="tripinfo_car_ns_.18" vType="normal_car" speedFactor="1.12" vaporized=""/>
    <tripinfo id="car_sn_.18" depart="116.00" departLane="south_to_center_0" departPos="5.10" departSpeed="0.00" departDelay="0.28" arrival="164.00" arrivalLane="center_to_north_0" arrivalPos="189.60" arrivalSpeed="13.17" duration="48.00" routeLength="394.90" waitingTime="0.00" waitingCount="0" stopTime="0.00" timeLoss="19.37" rerouteNo="0" devices="tripinfo_car_sn_.18" vType="normal_car" speedFactor="1.17" vaporized=""/>
    <tripinfo id="car_ns_.14" depart="97.00" departLane="north_to_center_0" departPos="12.10" departSpeed="0.00" departDelay="6.99" arrival="165.00" arrivalLane="center_to_south_0" arrivalPos="189.60" arrivalSpeed="9.62" duration="68.00" routeLength="387.90" waitingTime="14.00" waitingCount="1" stopTime="0.00" timeLoss="28.58" rerouteNo="0" devices="tripinfo_car_ns_.14" vType="bus" speedFactor="1.00" vaporized=""/>
    <tripinfo id="car_se_.4" depart="120.00" departLane="south_to_center_0" departPos="5.10" departSpeed="0.00" departDelay="0.00" arrival="165.00" arrivalLane="center_to_east_0" arrivalPos="189.60" arrivalSpeed="13.14" duration="45.00" routeLength="383.13" waitingTime="0.00" waitingCount="0" stopTime="0.00" timeLoss="16.05" rerouteNo="0" devices="tripinfo_car_se_.4" vType="normal_car" speedFactor="1.00" vaporized=""/>
    <tripinfo id="car_nw_.4" depart="123.00" departLane="north_to_center_0" departPos="5.10" departSpeed="0.00" departDelay="3.00" arrival="169.00" arrivalLane="center_to_west_0" arrivalPos="189.60" arrivalSpeed="10.55" duration="46.00" routeLength="383.13" waitingTime="0.00" waitingCount="0" stopTime="0.00" timeLoss="10.32" rerouteNo="0" devices="tripinfo_car_nw_.4" vType="normal_car" speedFactor="0.80" vaporized=""/>
    <tripinfo id="car_sw_.1" depart="32.00" departLane="south_to_center_0" departPos="5.10" departSpeed="0.00" departDelay="2.00" arrival="170.00" arrivalLane="center_to_west_1" arrivalPos="189.60" arrivalSpeed="11.34" duration="138.00" routeLength="393.45" waitingTime="92.00" waitingCount="2" stopTime="0.00" timeLoss="104.22" rerouteNo="0" devices="tripinfo_car_sw_.1" vType="normal_car" speedFactor="0.86" vaporized=""/>
    <tripinfo id="car_ne_.1" depart="30.00" departLane="north_to_center_0" departPos="12.10" departSpeed="0.00" departDelay="0.00" arrival="176.00" arrivalLane="center_to_east_0" arrivalPos="189.60" arrivalSpeed="9.86" duration="146.00" routeLength="386.45" waitingTime="88.00" waitingCount="2" stopTime="0.00" timeLoss="106.68" rerouteNo="0" devices="tripinfo_car_ne_.1" vType="bus" speedFactor="1.00" vaporized=""/>
    <tripinfo id="car_ew_.7" depart="73.00" departLane="east_to_center_0" departPos="5.10" departSpeed="0.00" departDelay="1.00" arrival="198.00" arrivalLane="center_to_west_0" arrivalPos="189.60" arrivalSpeed="13.69" duration="125.00" routeLength="394.90" waitingTime="87.00" waitingCount="1" stopTime="0.00" timeLoss="96.31" rerouteNo="0" devices="tripinfo_car_ew_.7" vType="normal_car" speedFactor="1.05" vaporized=""/>
    <tripinfo id="car_ew_.9" depart="93.00" departLane="east_to_center_0" departPos="5.10" departSpeed="0.00" departDelay="0.43" arrival="201.00" arrivalLane="center_to_west_0" arrivalPos="189.60" arrivalSpeed="13.58" duration="108.00" routeLength="394.90" waitingTime="69.00" waitingCount="1" stopTime="0.00" timeLoss="78.81" rerouteNo="0" devices="tripinfo_car_ew_.9" vType="normal_car" speedFactor="0.99" vaporized=""/>
    <tripinfo id="car_we_.9" depart="93.00" departLane="west_to_center_0" departPos="5.10" departSpeed="0.00" departDelay="0.43" arrival="205.00" arrivalLane="center_to_east_1" arrivalPos="189.60" arrivalSpeed="11.93" duration="112.00" routeLength="394.90" waitingTime="68.00" waitingCount="1" stopTime="0.00" timeLoss="81.46" rerouteNo="0" devices="tripinfo_car_we_.9" vType="normal_car" speedFactor="0.94" vaporized=""/>
    <tripinfo id="car_en_.2" depart="96.00" departLane="east_to_center_0" departPos="5.10" departSpeed="0.00" departDelay="0.00" arrival="205.00" arrivalLane="center_to_north_0" arrivalPos="189.60" arrivalSpeed="11.34" duration="109.00" routeLength="383.13" waitingTime="66.00" waitingCount="1" stopTime="0.00" timeLoss="77.00" rerouteNo="0" devices="tripinfo_car_en_.2" vType="normal_car" speedFactor="0.91" vaporized=""/>
    <tripinfo id="car_we_.7" depart="73.00" departLane="west_to_center_0" departPos="12.10" departSpeed="0.00" departDelay="1.00" arrival="206.00" arrivalLane="center_to_east_0" arrivalPos="189.60" arrivalSpeed="9.65" duration="133.00" routeLength="387.90" waitingTime="80.00" waitingCount="1" stopTime="0.00" timeLoss="93.98" rerouteNo="0" devices="tripinfo_car_we_.7" vType="bus" speedFactor="1.00" vaporized=""/>
    <tripinfo id="car_ew_.8" depart="83.00" departLane="east_to_center_0" departPos="12.10" departSpeed="0.00" departDelay="0.71" arrival="206.00" arrivalLane="center_to_west_0" arrivalPos="189.60" arrivalSpeed="9.76" duration="123.00" routeLength="387.90" waitingTime="72.00" waitingCount="1" stopTime="0.00" timeLoss="83.44" rerouteNo="0" devices="tripinfo_car_ew_.8" vType="bus" speedFactor="1.00" vaporized=""/>
    <tripinfo id="car_ws_.2" depart="99.00" departLane="west_to_center_0" departPos="5.10" departSpeed="0.00" departDelay="3.00" arrival="207.00" arrivalLane="center_to_south_0" arrivalPos="189.60" arrivalSpeed="11.42" duration="108.00" routeLength="383.13" waitingTime="64.00" waitingCount="1" stopTime="0.00" timeLoss="76.12" rerouteNo="0" devices="tripinfo_car_ws_.2" vType="normal_car" speedFactor="0.89" vaporized=""/>
    <tripinfo id="car_ew_.11" depart="114.00" departLane="east_to_center_0" departPos="5.10" departSpeed="0.00" departDelay="0.85" arrival="208.00" arrivalLane="center_to_west_1" arrivalPos="189.60" arrivalSpeed="12.97" duration="94.00" routeLength="394.90" waitingTime="49.00" waitingCount="1" stopTime="0.00" timeLoss="64.18" rerouteNo="0" devices="tripinfo_car_ew_.11" vType="normal_car" speedFactor="0.98" vaporized=""/>
    <tripinfo id="car_ew_.13" depart="134.00" departLane="east_to_center_0" departPos="5.10" departSpeed="0.00" departDelay="0.28" arrival="209.00" arrivalLane="center_to_west_0" arrivalPos="189.60" arrivalSpeed="13.26" duration="75.00" routeLength="394.90" waitingTime="33.00" waitingCount="1" stopTime="0.00" timeLoss="45.97" rerouteNo="0" devices="tripinfo_car_ew_.13" vType="normal_car" speedFactor="1.13" vaporized=""/>