<?xml version="1.0" encoding="UTF-8"?>

<!-- generated on 2026-04-15T22:14:49.722545+05:30 by Eclipse SUMO sumo 1.26.0
<sumoConfiguration xmlns:xsi="http://www.w3.org/2001/XMLSchema-instance" xsi:noNamespaceSchemaLocation="http://sumo.dlr.de/xsd/sumoConfiguration.xsd">

    <input>
        <net-file value="simulation\sumo_configs\map.net.xml"/>
        <route-files value="simulation\sumo_configs\routes.rou.xml"/>
    </input>

    <output>
        <summary-output value="simulation\sumo_configs\output/summary.xml"/>
        <tripinfo-output value="simulation\sumo_configs\output/tripinfo.xml"/>
    </output>

    <time>
        <begin value="0"/>
        <end value="3600"/>
        <step-length value="1.0"/>
    </time>

    <processing>
        <collision.action value="warn"/>
        <time-to-teleport value="-1"/>
        <waiting-time-memory value="100"/>
    </processing>

    <report>
        <no-warnings value="true"/>
        <no-step-log value="true"/>
    </report>

    <traci_server>
        <remote-port value="8813"/>
    </traci_server>

    <random_number>
        <seed value="42"/>
    </random_number>

</sumoConfiguration>
-->

<tripinfos xmlns:xsi="http://www.w3.org/2001/XMLSchema-instance" xsi:noNamespaceSchemaLocation="http://sumo.dlr.de/xsd/tripinfo_file.xsd">
    <tripinfo id="car_ew_.0" depart="0.00" departLane="east_to_center_0" departPos="5.10" departSpeed="0.00" departDelay="0.00" arrival="33.00" arrivalLane="center_to_west_0" arrivalPos="189.60" arrivalSpeed="12.65" duration="33.00" routeLength="394.90" waitingTime="0.00" waitingCount="0" stopTime="0.00" timeLoss="4.19" rerouteNo="0" devices="tripinfo_car_ew_.0" vType="normal_car" speedFactor="1.05" vaporized=""/>
</tripinfos>
